TIMESTAMP = 1586702111
SHA256 (DL_POLY_CLASSIC-dl_poly-565a1de4234430452c8248426ca2fa15d532334d_GL0.tar.gz) = 2f4d02e91a1c554979c86d1e1c8790d968cd3e67d5f4cd842e793f6d625fbaac
SIZE (DL_POLY_CLASSIC-dl_poly-565a1de4234430452c8248426ca2fa15d532334d_GL0.tar.gz) = 9161161
